 ------------------------------------
 #P 6-31G blyp geom=modela output=mat
 ------------------------------------

 (Enter /opt/gaussian/gdv-20210302-j15/gdv/l101.exe)
 -------------------------
 formaldehyde dipole check
 -------------------------
 Charge =  0 Multiplicity = 1

                         Standard orientation:
 ---------------------------------------------------------------------
 Center     Atomic      Atomic             Coordinates (Angstroms)
 Number     Number       Type             X           Y           Z
 ---------------------------------------------------------------------
      1          6           0        0.000000   -0.000000   -0.542500
      2          8           0        0.000000    0.000000    0.677500
      3          1           0        0.000000    0.935307   -1.082500
      4          1           0       -0.000000   -0.935307   -1.082500
 ---------------------------------------------------------------------

 SCF Done:  E(RB-LYP) =  -114.434345066     A.U. after   11 cycles

 The electronic state is 1-A1.
 Alpha  occ. eigenvalues --      -18.81466     -10.01535      -0.97779      -0.57241      -0.45099
 Alpha  occ. eigenvalues --       -0.37580      -0.35347      -0.21011
 Alpha virt. eigenvalues --       -0.08167       0.08263       0.15563       0.19013       0.46724
 Alpha virt. eigenvalues --        0.58548       0.59632       0.65841       0.82610       0.84413
 Alpha virt. eigenvalues --        0.89757       0.90184       1.06241       1.54849

 Mulliken charges:
               1
     1  C    0.088900
     2  O   -0.301520
     3  H    0.106310
     4  H    0.106310
 Sum of Mulliken charges =   0.00000

 Dipole moment (field-independent basis, Debye):
    X=             -0.0000    Y=              0.0000    Z=             -2.2350  Tot=              2.2350
 Quadrupole moment (field-independent basis, Debye-Ang):
   XX=            -11.3978   YY=            -11.5042   ZZ=            -12.4563
   XY=              0.0000   XZ=              0.0000   YZ=             -0.0000

 Normal termination of Gaussian DV at Wed Nov  8 11:44:10 2023.
