 ---------------------------------------------------------------
 #p uhf geom=modela output=(mat,AO2ElectronIntegrals) int=noraff
 ---------------------------------------------------------------

 (Enter /opt/gaussian/gdv-20210302-j15/gdv/l101.exe)
 ---------------
 h2 dipole check
 ---------------
 Charge =  0 Multiplicity = 1

                         Standard orientation:
 ---------------------------------------------------------------------
 Center     Atomic      Atomic             Coordinates (Angstroms)
 Number     Number       Type             X           Y           Z
 ---------------------------------------------------------------------
      1          1           0        0.000000    0.000000    0.370000
      2          1           0        0.000000    0.000000   -0.370000
 ---------------------------------------------------------------------

 SCF Done:  E(UHF) =  -1.11675930751     A.U. after    1 cycles

 The electronic state is 1-SGG.
 Alpha  occ. eigenvalues --       -0.57855
 Alpha virt. eigenvalues --        0.67114
  Beta  occ. eigenvalues --       -0.57855
  Beta virt. eigenvalues --        0.67114

 Mulliken charges and spin densities:
               1          2
     1  H   -0.000000   0.000000
     2  H   -0.000000   0.000000
 Sum of Mulliken charges =  -0.00000   0.00000

 Dipole moment (field-independent basis, Debye):
    X=             -0.0000    Y=              0.0000    Z=              0.0000  Tot=              0.0000
 Quadrupole moment (field-independent basis, Debye-Ang):
   XX=             -1.8475   YY=             -1.8475   ZZ=             -1.4274
   XY=              0.0000   XZ=             -0.0000   YZ=              0.0000

 Normal termination of Gaussian DV at Fri Jan 19 16:25:58 2024.
