 ----------------------------------------------------------------------
 #p ublyp geom=modela 6-31G output=(mat,AO2ElectronIntegrals) int=noraf
 f
 ----------------------------------------------------------------------

 (Enter /opt/gaussian/gdv-20210302-j15/gdv/l101.exe)
 ----------------
 h2o dipole check
 ----------------
 Charge =  0 Multiplicity = 1

                         Standard orientation:
 ---------------------------------------------------------------------
 Center     Atomic      Atomic             Coordinates (Angstroms)
 Number     Number       Type             X           Y           Z
 ---------------------------------------------------------------------
      1          8           0        0.000000    0.000000    0.110851
      2          1           0        0.000000    0.783837   -0.443405
      3          1           0       -0.000000   -0.783837   -0.443405
 ---------------------------------------------------------------------

 SCF Done:  E(UB-LYP) =  -76.3653022741     A.U. after    9 cycles

 The electronic state is 1-A1.
 Alpha  occ. eigenvalues --      -18.77458      -0.91289      -0.47677      -0.27979      -0.22188
 Alpha virt. eigenvalues --        0.03180       0.12036       0.78506       0.80366       0.83725
 Alpha virt. eigenvalues --        0.89039       1.01602       1.35472
  Beta  occ. eigenvalues --      -18.77458      -0.91289      -0.47677      -0.27979      -0.22188
  Beta virt. eigenvalues --        0.03180       0.12036       0.78506       0.80366       0.83725
  Beta virt. eigenvalues --        0.89039       1.01602       1.35472

 Mulliken charges and spin densities:
               1          2
     1  O   -0.685608   0.000000
     2  H    0.342804   0.000000
     3  H    0.342804   0.000000
 Sum of Mulliken charges =  -0.00000   0.00000

 Dipole moment (field-independent basis, Debye):
    X=             -0.0000    Y=             -0.0000    Z=             -2.3111  Tot=              2.3111
 Quadrupole moment (field-independent basis, Debye-Ang):
   XX=             -7.1677   YY=             -4.1609   ZZ=             -6.2833
   XY=              0.0000   XZ=              0.0000   YZ=             -0.0000

 Normal termination of Gaussian DV at Tue Dec 12 11:39:11 2023.
