 -------------------------------------
 #P sto-3g blyp geom=modela output=mat
 -------------------------------------

 (Enter /opt/gaussian/gdv-20210302-j15/gdv/l101.exe)
 --------------------
 h2o dipole_min check
 --------------------
 Charge =  0 Multiplicity = 1

                         Standard orientation:
 ---------------------------------------------------------------------
 Center     Atomic      Atomic             Coordinates (Angstroms)
 Number     Number       Type             X           Y           Z
 ---------------------------------------------------------------------
      1          8           0        0.000000    0.000000    0.110851
      2          1           0        0.000000    0.783837   -0.443405
      3          1           0       -0.000000   -0.783837   -0.443405
 ---------------------------------------------------------------------

 SCF Done:  E(RB-LYP) =  -75.2748779352     A.U. after    9 cycles

 The electronic state is 1-A1.
 Alpha  occ. eigenvalues --      -18.47687      -0.82993      -0.39054      -0.14424      -0.06233
 Alpha virt. eigenvalues --        0.29881       0.42893

 Mulliken charges:
               1
     1  O   -0.365105
     2  H    0.182553
     3  H    0.182553
 Sum of Mulliken charges =  -0.00000

 Dipole moment (field-independent basis, Debye):
    X=             -0.0000    Y=              0.0000    Z=             -1.6086  Tot=              1.6086
 Quadrupole moment (field-independent basis, Debye-Ang):
   XX=             -6.1012   YY=             -4.2543   ZZ=             -5.4698
   XY=              0.0000   XZ=              0.0000   YZ=              0.0000

 Normal termination of Gaussian DV at Tue Nov 14 14:36:13 2023.
