 ---------------------------------------------------------------
 #p uhf geom=modela output=(mat,AO2ElectronIntegrals) int=noraff
 ---------------------------------------------------------------

 (Enter /opt/gaussian/gdv-20210302-j15/gdv/l101.exe)
 ----------------
 nh3 dipole check
 ----------------
 Charge =  0 Multiplicity = 1

                         Standard orientation:
 ---------------------------------------------------------------------
 Center     Atomic      Atomic             Coordinates (Angstroms)
 Number     Number       Type             X           Y           Z
 ---------------------------------------------------------------------
      1          7           0        0.000000    0.000000    0.101000
      2          1           0        0.000000    0.952237   -0.235667
      3          1           0       -0.824662   -0.476119   -0.235667
      4          1           0        0.824662   -0.476119   -0.235667
 ---------------------------------------------------------------------

 SCF Done:  E(UHF) =  -55.4525342286     A.U. after    7 cycles

 The electronic state is 1-A1.
 Alpha  occ. eigenvalues --      -15.29650      -1.08234      -0.57526      -0.57526      -0.34372
 Alpha virt. eigenvalues --        0.63292       0.74500       0.74500
  Beta  occ. eigenvalues --      -15.29650      -1.08234      -0.57526      -0.57526      -0.34372
  Beta virt. eigenvalues --        0.63292       0.74500       0.74500

 Mulliken charges and spin densities:
               1          2
     1  N   -0.480679   0.000000
     2  H    0.160226   0.000000
     3  H    0.160226   0.000000
     4  H    0.160226   0.000000
 Sum of Mulliken charges =  -0.00000   0.00000

 Dipole moment (field-independent basis, Debye):
    X=             -0.0000    Y=             -0.0000    Z=             -1.6479  Tot=              1.6479
 Quadrupole moment (field-independent basis, Debye-Ang):
   XX=             -5.7969   YY=             -5.7969   ZZ=             -7.7291
   XY=             -0.0000   XZ=              0.0000   YZ=              0.0000

 Normal termination of Gaussian DV at Fri Jan 19 18:09:42 2024.
