 ----------------------------------------------------------------------
 #p test geom=modela mp2=full 6-31G output=(mat,AO2ElectronIntegrals,MO
 2ElectronIntegrals) tran=full window=full int=noraff nosymm
 ----------------------------------------------------------------------

 (Enter /opt/gaussian/gdv-20210302-j15/gdv/l101.exe)
 ----
 test
 ----
 Charge =  0 Multiplicity = 1

                          Input orientation:
 ---------------------------------------------------------------------
 Center     Atomic      Atomic             Coordinates (Angstroms)
 Number     Number       Type             X           Y           Z
 ---------------------------------------------------------------------
      1          8           0        0.000000    0.000000   -0.000000
      2          1           0        0.000000   -0.000000    0.960000
      3          1           0        0.905097    0.000000   -0.320000
 ---------------------------------------------------------------------

 SCF Done:  E(RHF) =  -75.9850783110     A.U. after   10 cycles
 E2 =    -0.1287568329D+00 EUMP2 =    -0.76113835143843D+02
 E2 =    -0.1287568329D+00 EUMP2 =    -0.76113835143843D+02

 Alpha  occ. eigenvalues --      -20.55712      -1.34934      -0.71695      -0.55067      -0.49871
 Alpha virt. eigenvalues --        0.20412       0.29997       1.08676       1.15984       1.16641
 Alpha virt. eigenvalues --        1.20777       1.38369       1.68080

 Mulliken charges:
               1
     1  O   -0.807248
     2  H    0.403624
     3  H    0.403624
 Sum of Mulliken charges =  -0.00000

 Dipole moment (field-independent basis, Debye):
    X=              2.0768    Y=             -0.0000    Z=              1.4685  Tot=              2.5436
 Quadrupole moment (field-independent basis, Debye-Ang):
   XX=             -5.1216   YY=             -7.2160   ZZ=             -4.5462
   XY=              0.0000   XZ=             -0.8137   YZ=             -0.0000

 Normal termination of Gaussian DV at Mon Dec 11 16:52:43 2023.
