 ----------------------------------------------------------------------
 #P ublyp IOp(5/189=2) guess=(alter,read) chkbasis geom=check pop=orbit
 als=20 output=(mat,AO2Electronintegrals)
 ----------------------------------------------------------------------

 ----
 test
 ----
 Structure from the checkpoint file:  "h2o_dipole_ex.chk"
 Charge =     0 Multiplicity =     1

                         Standard orientation:
 ---------------------------------------------------------------------
 Center     Atomic      Atomic             Coordinates (Angstroms)
 Number     Number       Type             X           Y           Z
 ---------------------------------------------------------------------
      1          8           0       -0.000000    0.000000    0.118192
      2          1           0       -0.000000    0.793318   -0.472769
      3          1           0       -0.000000   -0.793318   -0.472769
 ---------------------------------------------------------------------

 SCF Done:  E(UB-LYP) =  -76.0964161128     A.U. after    8 cycles

 The electronic state is 1-B1.
 Alpha  occ. eigenvalues --      -18.94171      -1.00864      -0.03168      -0.41853      -0.56144
 Alpha virt. eigenvalues --        0.04527       0.70309       0.80868       0.69783       1.28432
 Alpha virt. eigenvalues --        0.91239      -0.32618       0.75862
  Beta  occ. eigenvalues --      -18.95785      -1.04543      -0.44211      -0.43284      -0.56556
  Beta virt. eigenvalues --        0.08532       0.00922       0.68114       0.72024       0.73298
  Beta virt. eigenvalues --        0.81988       0.91066       1.25733

 Mulliken charges and spin densities:
               1          2
     1  O    0.049685  -1.170007
     2  H   -0.024843   0.585003
     3  H   -0.024843   0.585003
 Sum of Mulliken charges =  -0.00000   0.00000

 Dipole moment (field-independent basis, Debye):
    X=              0.0000    Y=             -0.0000    Z=              0.1358  Tot=              0.1358
 Quadrupole moment (field-independent basis, Debye-Ang):
   XX=             -7.1432   YY=             -8.7130   ZZ=             -8.9601
   XY=             -0.0000   XZ=             -0.0000   YZ=              0.0000

 Normal termination of Gaussian DV at Wed Feb 21 13:47:46 2024.
