 ----------------------------------------------------------------------
 #P ublyp 6-31G pop=orbitals=20 opt output=(mat,AO2Electronintegrals) g
 uess=save geom=modela
 ----------------------------------------------------------------------

 (Enter /opt/gaussian/gdv-20240213-j26+/gdv/l101.exe)
 ---
 h2o
 ---
 Charge =     0 Multiplicity =     1

 SCF Done:  E(UB-LYP) =  -76.3653022741     A.U. after    9 cycles
 SCF Done:  E(UB-LYP) =  -76.3665713227     A.U. after    7 cycles
 SCF Done:  E(UB-LYP) =  -76.3666757601     A.U. after    7 cycles
 SCF Done:  E(UB-LYP) =  -76.3666764007     A.U. after    6 cycles
 Optimization completed.
    -- Stationary point found.

                         Standard orientation:
 ---------------------------------------------------------------------
 Center     Atomic      Atomic             Coordinates (Angstroms)
 Number     Number       Type             X           Y           Z
 ---------------------------------------------------------------------
      1          8           0       -0.000000   -0.000000    0.118192
      2          1           0        0.000000    0.793318   -0.472769
      3          1           0       -0.000000   -0.793318   -0.472769
 ---------------------------------------------------------------------

 The electronic state is 1-A1.
 Alpha  occ. eigenvalues --      -18.78162      -0.90364      -0.46245      -0.28611      -0.22125
 Alpha virt. eigenvalues --        0.02265       0.10862       0.75758       0.78152       0.83651
 Alpha virt. eigenvalues --        0.89808       1.00872       1.35869
  Beta  occ. eigenvalues --      -18.78162      -0.90364      -0.46245      -0.28611      -0.22125
  Beta virt. eigenvalues --        0.02265       0.10862       0.75758       0.78152       0.83651
  Beta virt. eigenvalues --        0.89808       1.00872       1.35869

 Mulliken charges and spin densities:
               1          2
     1  O   -0.677291   0.000000
     2  H    0.338645   0.000000
     3  H    0.338645   0.000000
 Sum of Mulliken charges =  -0.00000   0.00000

 Dipole moment (field-independent basis, Debye):
    X=             -0.0000    Y=              0.0000    Z=             -2.3325  Tot=              2.3325
 Quadrupole moment (field-independent basis, Debye-Ang):
   XX=             -7.2276   YY=             -4.2554   ZZ=             -6.2356
   XY=              0.0000   XZ=              0.0000   YZ=             -0.0000

 Normal termination of Gaussian DV at Wed Feb 21 13:47:20 2024.
